============================== echo of input deck ==============================
start h2

memory total 6 gb

echo

geometry units angstroms
symmetry c1
H    0.000  0.000  0.000
H    0.000  0.000  1.700
end

basis
 * library 6-31G
end

scf
thresh 1.0e-8
tol2e 1.0e-9
singlet
rhf
maxiter 200
end

tce
ccsd
2eorb
2emet 13
thresh 1.0d-8
end

set tce:print_integrals T
set tce:qorb  4
set tce:qela  1
set tce:qelb  1

task tce energy

================================================================================

 Output coordinates in angstroms (scale by  1.889725989 to convert to a.u.)

  No.       Tag          Charge          X              Y              Z
 ---- ---------------- ---------- -------------- -------------- --------------
    1 H                    1.0000     0.00000000     0.00000000    -0.85000000
    2 H                    1.0000     0.00000000     0.00000000     0.85000000

         Total SCF energy =     -0.962310156452

 Vector    1  Occ=2.000000D+00  E=-4.108864D-01

 Vector    2  Occ=0.000000D+00  E= 1.829823D-02

 Vector    3  Occ=0.000000D+00  E= 1.011509D+00

 Vector    4  Occ=0.000000D+00  E= 1.044115D+00

       Multipole analysis of the density wrt the origin
       ------------------------------------------------

     L   x y z        total         open         nuclear
     -   - - -        -----         ----         -------
     0   0 0 0      0.000000      0.000000      2.000000

     1   1 0 0      0.000000      0.000000      0.000000
     1   0 1 0      0.000000      0.000000      0.000000
     1   0 0 1      0.000000      0.000000      0.000000

     2   2 0 0     -2.180140      0.000000      0.000000
     2   1 1 0      0.000000      0.000000      0.000000
     2   1 0 1      0.000000      0.000000      0.000000
     2   0 2 0     -2.180140      0.000000      0.000000
     2   0 1 1      0.000000      0.000000      0.000000

 CCSD total energy / hartree       =        -1.034044750581310
 Total times  cpu:        0.3s     wall:        0.4s
